<VTKFile type="PolyData" version="1.0" byte_order="LittleEndian" header_type="UInt64">
  <PolyData>
    <FieldData>
      <DataArray type="Float64" Name="TimeValue" NumberOfTuples="1" format="ascii" RangeMin="1005000068921600000" RangeMax="1005000068921600000">
        1005000068921600000
      </DataArray>
    </FieldData>
    <Piece NumberOfPoints="2578" NumberOfVerts="0" NumberOfLines="0" NumberOfStrips="0" NumberOfPolys="5152">
      <PointData>
        <DataArray type="Float64" Name="displacement" NumberOfComponents="3" format="ascii" RangeMin="0" RangeMax="0.0003064561460959454">
          -0.00002256967754672464 0 -0.00004445987845126274 -0.000020037007483900003 0 -0.00004449327018109244
          -0.000018540154483834164 0 -0.00004173756721022697 -0.000017394669332025155 0 -0.00004451753266253433
          -0.00001584691677503638 0 -0.000041627589159419215 -0.00001402052160191896 0 -0.00004051692904745281
          -0.00002121386629619418 0 -0.00004771470242653783 -0.000019250042242821878 0 -0.000050651653683943583
          -0.000018495131174156686 0 -0.00004777179619588869 -0.000008930594352644304 0 -0.000044555238956256816
          0 0 -0.00004453004530971338 -0.00000736934913092313 0 -0.000041559561587822327
          -0.000009844997811236896 0 -0.00004786893117420071 0 0.000015084134029253225 -0.00004854505866670451
          0 0.000015922923417069305 -0.00004674580045553798 0 0.000007630825494158472 -0.00004671646436693967
          0 0.000016658938239853135 -0.000044540942351445226 0 0.00000846938881068036 -0.00004451764139680362
          0 0.000011590563979142505 -0.000040440236905022806 0 0.000006105676139803656 -0.00004137893253187555
          0 0.000014026061172492984 -0.00004144871613794409 0 0.000016411226253563078 -0.000041557995150059026
          0 0.000019108325066912753 -0.00004455251639973842 0 0.000021405183794210373 -0.00004457733294582659
          0 0.000018446554245436373 -0.00004668298748565957 0 0 -0.00008327470145173695
          -0.00000778451294883709 0 -0.00007956258964800151 -0.000008498152928771528 0 -0.00008325395288578023
          -0.000015538420929325225 0 -0.00007656575238004298 -0.000016065098237901903 0 -0.0000794615613675815
          -0.000016490368808681365 0 -0.0000830639387998805 -0.00001867058031760854 0 -0.00007949546839852333
          -0.000021287539446401985 0 -0.00008284946192256345 -0.000018954644744211767 0 -0.00008297122626718136
          -0.000006376433051978923 0 -0.00008866856530380703 -0.000014325528824564726 0 -0.00008850781618855714
          -0.000011874593756833195 0 -0.00009239127813289346 -0.000016776710443565844 0 -0.00008839573739317472
          0 0.000007586955229518013 -0.00008712479555066141 0 0.000008719025652395288 -0.00008319502653110886
          0 0.000014505070042510213 -0.00008993977002721275 0 0.000015801323661690202 -0.0000869978062011817
          0 0.000017173515215149786 -0.00008307467013214767 0 0.000013102260457692671 -0.00007391643143308167
          0 0.000006650698923207496 -0.00007801615734256501 0 0.000015338991038286708 -0.00007794872446316636
          0 0.00001972421512485411 -0.00008301593892644997 0 0.000018323284722273946 -0.00008684867313004558
          0 0.0000221303905806439 -0.00008295393440924692 0 0.00001798587252754073 -0.00007802198234138619
          0 0 -0.00011922251450589086 -0.0000069279521521160025 0 -0.00011485723648926982
          -0.000008583075405242794 0 -0.00011933668177449143 -0.000013207628786792976 0 -0.00011179435301472088
          -0.000015176628203055839 0 -0.00011494047629467805 -0.000016911679837628207 0 -0.0001194791298302169
          -0.000024055442188847014 0 -0.00011985955683517089 -0.000019452998363375704 0 -0.0001236803689341983
          -0.000020682855354637626 0 -0.00011962245338793878 -0.000014062939023333749 0 -0.00012732394033998626
          -0.000015518635132886117 0 -0.00012372065561298547 -0.000007059123277163062 0 -0.00012365662346015848
          -0.000019023773428298763 0 -0.0001151685161208451 0 0.00001720345341923925 -0.00011950125790148824
          0 0.00001582973236932289 -0.00012375992859468165 0 0.000020794500600470078 -0.00011962385206461848
          0 0.00001427018752904924 -0.000127359851026245 0 0.000019626341617445 -0.00012371223294584452
          0 0.00002392653769618355 -0.00011981096226269853 0 0.000013093358167635409 -0.00011178760046245824
          0 0.000015305593555902528 -0.00011495089596464907 0 0.00001898246501103035 -0.00011517797230439937
          0 0.000007181593533252787 -0.00012366533495621962 0 0.000008794445830419378 -0.00011935100050951579
          0 0.0000069360732016191235 -0.00011486081007338421 -0.00001637326290368182 0 -0.00016607795491697046
          -0.000020336990574863675 0 -0.00016597382469182696 -0.000014674583760828099 0 -0.00017001995372093083
          -0.000024100780437394658 0 -0.00016588116878772148 -0.000018561137065701963 0 -0.00016975780483001655
          -0.000012879216995675021 0 -0.0001723972543364733 -0.000008197880259713248 0 -0.00016626243947645604
          -0.000006699230122249252 0 -0.00017016286843715096 0 0 -0.0001663454751368351
          -0.000013858499157715909 0 -0.00015964422748456218 -0.000015230362376197488 0 -0.00016242852461672704
          -0.000006901989057767615 0 -0.00016253241149997158 -0.00001929272552009266 0 -0.00016259218620499443
          0 0.000023654753371531084 -0.00016614691434955732 0 0.000019180841650183693 -0.00016269008444565826
          0 0.000020188148434419416 -0.00016615416552337494 0 0.000013833040533560884 -0.00015961030790647947
          0 0.000015310139866742795 -0.0001625063423025817 0 0.00001646855324383126 -0.00016618642328681144
          0 0.000014746827553396455 -0.00017003812946124038 0 0.000012900158657606853 -0.00017236640574991432
          0 0.000018468248522427992 -0.00016979253844498623 0 0.000008319375027279177 -0.00016629194567982538
          0 0.000006890418896845417 -0.0001625346637872932 0 0.000006699372639738235 -0.00017016048468145346
          0 0 -0.00017133791097568074 -0.000006410885188690459 0 -0.00016930913430010535
          -0.000007706999458206193 0 -0.00017135260742727585 -0.000012499682171467504 0 -0.00016882221359820805
          -0.000014005934946462571 0 -0.00016935543440192436 -0.000015338783657455433 0 -0.0001714323325618649
          -0.000006693642254176741 0 -0.00017325659245670446 -0.000014582317453900764 0 -0.00017337000095039008
          -0.000013436040708777124 0 -0.000174137645072044 -0.000019006733321565026 0 -0.00017149765814388114
          -0.000022475731630298928 0 -0.00017159037623247785 -0.000018446195390625154 0 -0.00017320230574624092
          -0.000017709853900228723 0 -0.0001696415958446819 0 0.00001221253859909095 -0.00016884760273622006
          0 0.000006320179836228004 -0.00016932630055635714 0 0.00001383261334466465 -0.0001694516097273093
          0 0.000007757260575859484 -0.00017135662995743632 0 0.000015031316412851572 -0.00017143342069583087
          0 0.000006588767114790039 -0.00017323082516461298 0 0.000013102342387592024 -0.0001740340449179378
          0 0.00001431376432767455 -0.00017325820679135558 0 0.000017048532213115992 -0.00016973325430262291
          0 0.000017960743542994083 -0.00017148219387951374 0 0.000020363862253276213 -0.00017154372681562255
          0 0.00001759353475627133 -0.00017306287314205467 -0.000007620251868815259 0 -0.0001817409251089575
          -0.000004415801890854866 0 -0.00018048252909944791 -0.000011445409392276342 0 -0.0001795979752479012
          0 0 -0.00017879391168243124 -0.000007734757101281288 0 -0.0001788686900360687
          -0.000015310766667600428 0 -0.00017813684698063847 -0.000015206537384381865 0 -0.0001795051067233846
          -0.0000119829380633615 0 -0.00018009313793113414 -0.000010654145207138992 0 -0.00018192446162600484
          -0.00001805205703470267 0 -0.00017884164588887383 -0.000018948078202662498 0 -0.0001775821910854415
          -0.000022382621318993122 0 -0.0001770402699583033 -0.000014788351121886731 0 -0.00017607658979655404
          -0.000006782599564286402 0 -0.00017631286982572385 -0.000013562762272732868 0 -0.0001753145115783174
          -0.000018481916267870596 0 -0.00017604560978147035 0 0.000014419324626722363 -0.00017834174192590964
          0 0.000010924551321532793 -0.0001796611669850201 0 0.000014632925767296261 -0.00017965562888061146
          0 0.000007357695726923771 -0.00018169311003045713 0 0.00001055881980280844 -0.00018186262312203734
          0 0.000012604144733314312 -0.00017953155559754375 0 0.000020026789765886696 -0.0001777600009028619
          0 0.000017413144870921548 -0.0001779918625931777 0 0.000017059702012472456 -0.000179186715308596
          0 0.000004209486480986608 -0.0001804891660488174 0 0.00000738751375920111 -0.00017888054214723647
          0 0.0000066298853595761855 -0.00017632399921446005 0 0.000014450510120027005 -0.0001762030988284538
          0 0.00001335906495697114 -0.00017534815145277795 0 0.000017825189005279692 -0.00017634918242279447
          0 0 -0.00007412498188594133 -0.000012332197058832866 0 -0.00007402870064366746
          -0.000012380744066348718 0 -0.00006347664029113852 -0.000024580992203850173 0 -0.00007384363662328078
          -0.000024351514738947305 0 -0.00006328815189327485 -0.000023416726653218338 0 -0.00005489253146463332
          -0.000027834425842930944 0 -0.00009914392877338305 -0.000026444118678329794 0 -0.00008508641106328418
          -0.000013299754072208675 0 -0.00008531791497404293 -0.000031983621395015645 0 -0.00009416522990881921
          -0.00004332848807021433 0 -0.00008710201486257998 -0.000028642445072000977 0 -0.0000815001039165465
          -0.000026457377822865934 0 -0.0000670107137597963 -0.0000341811969237306 0 -0.00005999969741424765
          -0.000024472266167160017 0 -0.000058425907179902695 -0.000037843874237293354 0 -0.00007162818643501776
          0 0 -0.00004312376011919089 -0.000011525352704273322 0 -0.000043137938605391784
          -0.000006804298309600304 0 -0.0000408716071791479 -0.000022755387756813808 0 -0.00004322105006903311
          -0.000018478516246074235 0 -0.00004100955398086512 -0.000028744447569881355 0 -0.00004734776347100835
          -0.000023624943761113116 0 -0.00004573000764102018 -0.000022998409160863718 0 -0.000050839838474532995
          -0.000023663729724712355 0 -0.000048211399878938084 -0.000011930625750035419 0 -0.00004820836991602541
          -0.000024256516692602396 0 -0.00004074762696600443 -0.000024870015895489824 0 -0.0000444164910864841
          -0.0000197924248507726 0 -0.00004180301592829317 -0.00002635574751625507 0 -0.0000426358724800854
          -0.00003319826898006185 0 -0.00004446845416499766 -0.00002756913647874202 0 -0.00004448969826017734
          -0.00003109974631440147 0 -0.000043454020033646475 0 0.0000185130971801406 -0.00007427519857479666
          0 0.00000948816495515713 -0.00007412114485744058 0 0.000009898970651690535 -0.00006354790121302347
          0 0 -0.00006351884459925903 0 0 -0.00005501808579738859
          0 0.000009626354131005638 -0.00008545204386477239 0 0.000018953545911180044 -0.00008564113615960412
          0 0.00001887880106983874 -0.00009981383152498832 0 0.000019276177979642414 -0.000055084364384537954
          0 0.00001927497681471425 -0.00006361728202381414 0 0.000009889123673594015 -0.00005499930502400665
          0 0.000009459701045293469 -0.00009837716696434496 0 0.000009814823740517332 -0.00008475195523607931
          0 0.000007449774022260757 -0.0000973549813729826 0 0.000010200348272608365 -0.00006992341472952114
          0 0.000011025842036439549 -0.000060650217082713144 0 0.000010069316799561154 -0.00006708335509540365
          0 0.00000861305317399456 -0.00008010976698924561 0 0.000020583272247802206 -0.00004366040347809733
          0 0.000010613277482629249 -0.00004329920861548165 0 0.000016469312816169606 -0.00004124775445194539
          0 0.000005623202414653705 -0.000040981130130744375 0 0.000022243441083526207 -0.00004084706012514969
          0 0.000017462566407185402 -0.000041623012426471884 0 0.00002330826915651864 -0.000044615704498144824
          0 0.000020300600341460906 -0.00004843741586717967 0 0.000012215443728996208 -0.000053092648460629234
          0 0.000013909721666261838 -0.000047587585277176025 0 0.000012862509503984975 -0.000052310036629815235
          0 0.000010379330138184685 -0.000048271098380773796 0 0.000015259696794013782 -0.00004431315592157474
          0 0.000017971637917786277 -0.0000472011341686224 0 0.000015135664516461639 -0.00004864883827048503
          0 0.00001884404252651139 -0.00004387892329646108 -0.00002373993559449275 0 -0.00004443944284461508
          -0.00002249651518829836 0 -0.000047682932417831566 -0.0000230182365204547 0 -0.000053050043906076036
          -0.00002631573760618611 0 -0.000050154455265373104 -0.00002625265550526779 0 -0.000055439167273739885
          -0.00002848356381672861 0 -0.00005543469153392173 -0.000025671910215937577 0 -0.00005081968958876515
          -0.000031044351830577194 0 -0.000048666791504367166 -0.000024934281308040205 0 -0.0000554366890919303
          0 0.000023599378729659835 -0.00005546545718844926 0 0.000024283604853730647 -0.00005019184139715276
          0 0.000019862845368753658 -0.00005202825321276483 0 0.000019561628289217034 -0.000046652165234165644
          0 0.00002239827968384121 -0.000044594331431887984 0 0.000021017901603103346 -0.00004810574901751802
          0 0.00002177124936632277 -0.0000483386411865656 0 0.00002309815906900161 -0.000051563581646436406
          0 0.000022620814600803536 -0.00005282046724193636 -0.000019858456669687517 0 -0.00007951325774768772
          -0.00002336079727212777 0 -0.00008269683654917585 -0.0000223486979642798 0 -0.00008277725772282901
          -0.00002952387224894399 0 -0.00006860514901108312 -0.000028656478564583833 0 -0.00007639761766919256
          -0.000025926493697000113 0 -0.00007454620995315019 -0.00002684735901709461 0 -0.00008336284191546896
          -0.000024783161855112375 0 -0.00008417847364337961 -0.000017913446051141728 0 -0.00008833181997662122
          -0.00002252777443404853 0 -0.00009198755707856863 -0.000021923800320331877 0 -0.0000908224308865525
          -0.0000205345907189351 0 -0.0000962703143851609 -0.00001688662505794331 0 -0.0000948606435595961
          -0.000025105142846982958 0 -0.00006707691430537641 -0.000025400257334628643 0 -0.00007415041241177831
          -0.0000208740049564596 0 -0.00007155143474675976 -0.000025678713809628756 0 -0.0000677982328262647
          0 0.000024152108617716382 -0.00008288974332006855 0 0.000022841650926667453 -0.00007839228618235856
          0 0.000024905216358903808 -0.00007408336940935162 0 0.000024875481852076934 -0.00007513492099302569
          0 0.000023065897869399985 -0.00007124962389564064 0 0.000024150852005575925 -0.00006686461457662227
          0 0.000023182475168865588 -0.00008292199911117175 0 0.000019441347584053915 -0.00008676982274263947
          0 0.000019164767014546022 -0.0000780624844994865 0 0.00002188929125996411 -0.00009619176481394843
          0 0.00002345127564599543 -0.00009196381194494871 0 0.000018589708308011742 -0.00009405660014070401
          0 0.000019169143400124727 -0.00007032711619371216 0 0.000023654152113126956 -0.00008232103981398649
          0 0.000020676163314897996 -0.00008728534715507974 0 0.000021602218856787457 -0.00008898512149141185
          0 0.0000177946325801847 -0.00009341808195339426 -0.000020363836401357287 0 -0.00013229147604980254
          -0.000025818687879812816 0 -0.00012888209052133712 -0.00002628559346895147 0 -0.00013692944831384876
          -0.000019822183998192653 0 -0.00010721632428749485 -0.000023007885465957343 0 -0.00011074174047342349
          -0.000017292842463710257 0 -0.00010872291505850807 -0.00001909430446253411 0 -0.00011037720535851011
          -0.000021249750726738684 0 -0.00011578382436218343 -0.000021622125588938982 0 -0.00011688085062262612
          -0.000024523858120143423 0 -0.00013607444719913482 -0.000022878506405621474 0 -0.0001286767690179064
          -0.000023698294952970304 0 -0.00012572048003517912 -0.000022225442834045022 0 -0.00013646299118836216
          0 0.00002271608321869425 -0.000110673030951667 0 0.000019644613556340534 -0.00010675110984420549
          0 0.000017129074974420374 -0.00010858321462475742 0 0.0000261611491427018 -0.0001369225143638428
          0 0.00002582080904553372 -0.0001288646024655635 0 0.000020572649939064955 -0.00013224895345379406
          0 0.000021344195324264244 -0.00011724756036781889 0 0.00002139035995555491 -0.00011629434146714417
          0 0.000018582153232305394 -0.00011087561479504422 0 0.000022162803330458885 -0.00013621236689121405
          0 0.00002369665937772629 -0.00013540673263223672 0 0.000022263814443239927 -0.00012831412302136084
          0 0.00002313958886258066 -0.000125238870569388 -0.000023410746206324607 0 -0.00015127319126908694
          -0.00002279803699307218 0 -0.00015512403986237566 -0.000024485253289575288 0 -0.0001585409529197448
          -0.00002377393128983599 0 -0.0001582359047778776 -0.000022398089897441526 0 -0.00016196345831856766
          -0.00001928677819261592 0 -0.00015566181055123334 -0.00002300851681688611 0 -0.00017298397210488087
          -0.000021588559414513174 0 -0.00017454713966648792 -0.00001750764448165521 0 -0.00017426124251957088
          -0.00001951333372657004 0 -0.00016963903089728041 -0.000019977407863650872 0 -0.00017041234059259508
          -0.00001736820356276155 0 -0.00017291194887607592 -0.00002212486770827803 0 -0.00016548289115803322
          0 0.000020482233964991547 -0.00016763497502688627 0 0.00002234004177055612 -0.00015922750127501934
          0 0.000020725818947120444 -0.00016764496252018863 0 0.000023146009279010003 -0.00016072997841818208
          0 0.000024707953855788736 -0.00015316457387418977 0 0.000024663294635095216 -0.0001584718177828658
          0 0.000023109762551278678 -0.00015216005889956806 0 0.00002412820500450053 -0.00015142783735372194
          0 0.000021586365590682435 -0.0001746312407940273 0 0.0000236327378070076 -0.00017264169523705588
          0 0.000017954892915099334 -0.00017413249399262861 0 0.000019580220390675774 -0.00015563194771657952
          0 0.000017311013490075977 -0.00017229308401862855 -0.000018689601058420748 0 -0.00017500197820031406
          -0.000023486078570750602 0 -0.00017440394291276767 -0.000023155870853848307 0 -0.0001762966008133255
          -0.000019659272214561387 0 -0.0001708657697279992 -0.00002164112004672767 0 -0.00016913347533868974
          -0.000016772459206474523 0 -0.00016937028153334355 -0.00001848690123577906 0 -0.00017186013036346758
          -0.000020836690557554412 0 -0.00017461263613319542 -0.000021087416744905993 0 -0.00017261497110128884
          -0.00002183435900229533 0 -0.00017490047049175666 -0.00002170844521039483 0 -0.00017489784404962756
          -0.000021516156859976426 0 -0.0001755681591820034 -0.000021477470327912394 0 -0.000175936021313316
          0 0.00002330520501644377 -0.0001758787683100217 0 0.000021794198942930328 -0.00017593083660169952
          0 0.000023023670936435566 -0.00017415080669743794 0 0.000021739416369216282 -0.00017558271103053992
          0 0.00002149824159188736 -0.00017490331524308222 0 0.00002063787793988375 -0.00017314626551753705
          0 0.000021980360964882828 -0.00017523459628723847 0 0.000021182104220771358 -0.00017510512868604532
          0 0.00002109545862469742 -0.00016918839367072882 0 0.000019292608844991155 -0.00017090285810355394
          0 0.000016472147474617832 -0.00016938851015681317 0 0.000018633845242218735 -0.00017480247403985573
          0 0.000018753659920026988 -0.00017239171592457034 -0.000023856699306274254 0 -0.0001754193881091205
          -0.000024437763731281464 0 -0.0001753025144407453 -0.000019335813646191093 0 -0.00017507207166065776
          -0.000019158195031756324 0 -0.00017174817056295002 -0.000017226786885946367 0 -0.00017362398184254265
          -0.000018374998956218676 0 -0.00017363999746401246 -0.000019955713118647894 0 -0.0001743094699924976
          0 0.00002391798017574346 -0.0001754579550730135 0 0.000023640617866618787 -0.0001754619867963726
          0 0.000019104640941713758 -0.00017506736981546842 0 0.000013951736402896026 -0.00017061842207080293
          0 0.000018797232633626494 -0.00017295473964352865 0 0.00001250656317740876 -0.00016094658462150285
          0 0.00001709895350968295 -0.00016804810168720742 0 0.000019984802960679996 -0.00017197419886497522
          0 0.000012283969242207931 -0.00016916243409651876 0 0.000020219680096092687 -0.0001741783234124726
          0 0 -0.00018825677876280504 -0.0000032258811755974262 0 -0.00018474115117604064
          -0.000006425546936335956 0 -0.00018656016300315197 0 0 -0.00019059857288522024
          -0.000006214055844967012 0 -0.00018751547416722775 0 0 -0.00016347284287775694
          -0.0000022167469119531686 0 -0.00016584414127089202 0 0 -0.00014874104137827752
          -0.000011829742707626245 0 -0.00016642767471813978 -0.000011388846142368645 0 -0.00015624043960275796
          -0.000006274113233803832 0 -0.00015415769070814764 0 0 -0.00018939887971787728
          -0.00001565422740820616 0 -0.00016629341782190284 0 0.000006564082718624069 -0.0001865154785554417
          0 0.0000064396738830717485 -0.00018744193251479945 0 0.0000031150982899904857 -0.0001846900501448444
          0 0.000002356304941022206 -0.00016572143332385073 0 0.00000647060542808579 -0.00015696577252258164
          0 0 0.0003064561460959454 -0.000011050420279980901 0 0.00029805094347890406
          0 0 0.0002910283510966739 -0.000021955468711544504 0 0.000289280475744953
          -0.000010951944669560769 0 0.0002822167446076795 0 0 0.000275105516422198
          0 5.298084695988035e-7 0.0002748929529433023 0 2.256827176016135e-7 0.000290882144971475
          0 2.637835617197564e-7 0.00027504329042409606 -0.000014871266434204557 0 0.00027434178072987734
          -0.0000074371120312830806 0 0.0002747159160289417 -0.000018400157204475206 0 0.00028184170994762913
          0 0 0.00018761312778596255 0 2.739414920529851e-7 0.00018735615849812997
          0 0 0.00023227232055545222 0 5.343150652387583e-7 0.00018705134533560645
          0 2.1384658988443569e-7 0.00023204609993260494 -0.00001871327210770746 0 0.0002507204032045732
          -0.000009328103459085638 0 0.00021960269241908174 -0.000009373013404121647 0 0.00026298973799028535
          0 5.272621500364654e-7 0.0002319244592974706 -0.00001679023548990349 0 0.00026260798965156137
          -0.00002401888654271156 0 0.0002731910203724396 -0.000027554137207015678 0 0.0002807212947976004
          -0.00003315256405449239 0 0.00027205863871864486 -0.00002592021520714041 0 0.0002614356901491232
          -0.000039880411772239886 0 0.00027895912309732873 -0.000034283662373982815 0 0.0002875522723721422
          -0.00004661896426951894 0 0.0002858359435162033 -0.00004208572593396563 0 0.00027013970341890767
          -0.000048805096784482987 0 0.00027706540039358776 -0.00005100924844709203 0 0.0002682233779197239
          -0.000039383818449732275 0 0.00025710661472625585 -0.000045615059440467206 0 0.00024191177140744965
          -0.00003217536445000512 0 0.00024631492795224177 -0.000048301296329899885 0 0.00025514963859385155
          -0.000058529719405030476 0 0.0002747948962701543 -0.00005965262825501859 0 0.0002655310474209562
          -0.00006606151078791963 0 0.0002813504773929382 -0.00006716539163453785 0 0.0002721347288803318
          -0.0000682849494219798 0 0.00026283565893154545 -0.000056331192485939764 0 0.0002835594966098288
          -0.000056941390938932 0 0.0002524034789868195 -0.00007634178485612895 0 0.0002685775179166223
          -0.00007522716749985557 0 0.00027781666471780436 -0.00008440581085212895 0 0.0002743144156311713
          -0.00007655363490212976 0 0.00025936825863051474 -0.00008459946416992122 0 0.0002651399125954672
          -0.00008481169980724416 0 0.00025588934400853295 -0.00007750405569529065 0 0.0002411416513976592
          -0.00006157248841899458 0 0.0002415089256628992 -0.00007289404011797154 0 0.0002520512648345796
          -0.0000811538225224916 0 0.00024853746688038695 -0.00009319838032714201 0 0.00027015708750869515
          -0.00010201142997963135 0 0.0002660252456309293 -0.00009340854678601807 0 0.0002609560209785552
          -0.00009262688630450133 0 0.00025165501672637125 -0.00010120932673219069 0 0.0002567496672719633
          -0.00010043397105208846 0 0.00024740236936827845 -0.00008897308684605307 0 0.00024426471196906037
          -0.00011500975981262606 0 0.00023741585382646598 -0.00010772658255064424 0 0.00024242294843723156
          -0.0001167617260807802 0 0.0002467813833593571 -0.00010948374205482523 0 0.0002517335445170897
          -0.00011853711488779515 0 0.0002560768536953422 -0.00011025687825847792 0 0.0002610385690920299
          -0.00010506178089184746 0 0.00023356061917048572 -0.00009510761737140366 0 0.00022971305091697448
          -0.0000977651653699059 0 0.00023859019731669288 -0.00008631114857430966 0 0.00023544360225803414
          -0.0001245955964679664 0 0.0002411393589137259 -0.00012170932623751493 0 0.00023170991204780552
          -0.00013418019625741323 0 0.00024487633856826093 -0.00013127584746060498 0 0.00023545369443566741
          -0.00012840507753121647 0 0.0002259691708864896 -0.00012634645039493684 0 0.0002504795052717109
          -0.00011181601493986761 0 0.00021385801177771475 -0.00011340226632603643 0 0.00022569468626841137
          -0.00012011094164052895 0 0.00021991966962355217 -0.00010346461453714232 0 0.0002218171766122339
          -0.000138081320651576 0 0.00022865300325452357 -0.00013446082320185823 0 0.00021957277206501217
          -0.00014775695640539347 0 0.00023135761261025068 -0.00014411983341210228 0 0.00022227399517177272
          -0.00014051367279388906 0 0.00021313330123252545 -0.00014093754091423332 0 0.00023811607256891997
          -0.00012618023638932808 0 0.00021348724495149065 -0.0001539591029842119 0 0.00022405436077524457
          -0.00016021012335108237 0 0.00021672677686829082 -0.00015036513235840623 0 0.00021492031364055058
          -0.00014587479809500837 0 0.00020608661162581832 -0.0001557075667162587 0 0.00020788193704379478
          -0.00015123672098019727 0 0.00019898889123540876 -0.00013484092184841873 0 0.00020525838800298452
          -0.00012917424844999435 0 0.00019734686903723984 -0.00012049791424282773 0 0.00020563657170937633
          -0.00014021457150871229 0 0.00019816143280777627 -0.00017153391638117458 0 0.00020095647448847902
          -0.0001613914496210684 0 0.00019996355591502682 -0.0001658423960067409 0 0.00020886254690464555
          -0.00015585940451457442 0 0.00019133693234214404 -0.0001659983678819533 0 0.000192309976478107
          -0.00016048764508703206 0 0.0001836282906686958 -0.0001449077959285228 0 0.00018752560369991668
          -0.0001495495089407735 0 0.0001798008167240052 -0.0001385942896376661 0 0.0001759848399411757
          -0.00013387831977649162 0 0.00018671606181596873 -0.00017065084012299588 0 0.0001835899742220404
          -0.0001643401854146817 0 0.00017543076731727796 -0.00018080698447275792 0 0.0001835662965802756
          -0.000174493452509544 0 0.00017538588490658558 -0.00016820027679487646 0 0.00016717350453161067
          -0.00017612915311916372 0 0.0001922823089927374 -0.00015341406507156992 0 0.00017158749709197474
          -0.00017828110993970962 0 0.0001660985817040026 -0.00017125010758345748 0 0.00015849756113893
          -0.0001883494873127654 0 0.00016503170234221355 -0.00018132225513212675 0 0.00015740487129847097
          -0.00017431042085665864 0 0.0001497584208937774 -0.00018454892886903587 0 0.0001743323073941824
          -0.00014730885100267373 0 0.00014749905275947823 -0.00014293866226057204 0 0.0001618234743429013
          -0.00015775777126866402 0 0.000157351100650887 -0.00016082581744156853 0 0.00014862070100815812
          -0.00019095231343009848 0 0.00015522038085786827 -0.00019362691092450154 0 0.0001453407117770236
          -0.00018397378977203603 0 0.00014755056050817254 -0.00017653562282741493 0 0.00014068070422476988
          -0.00018619606157888548 0 0.00013844645326403096 -0.00017877357516174648 0 0.00013153881389477476
          -0.00017160389098463152 0 0.00013475658399553857 -0.0001644267370579206 0 0.00013796223909082778
          -0.00016936845601563612 0 0.0001438667460801611 -0.00015587173369336412 0 0.00014274242858834858
          -0.0001881772740160515 0 0.00012828215164829498 -0.00018015897025411631 0 0.00012214445602343546
          -0.00019757093217576845 0 0.00012501482586196508 -0.00018956211992993819 0 0.00011885353938931594
          -0.00018155936837245328 0 0.0001126862499676091 -0.000195568193481508 0 0.00013521504048363362
          -0.00016785915201088453 0 0.00011700870642823617 -0.00015412373934621567 0 0.0001213035524365665
          -0.00016646381398094037 0 0.00012641564496343268 -0.00015927354196146107 0 0.00012964806291754837
          -0.00019088483645946438 0 0.00010839654159103687 -0.00019884124209581844 0 0.00011458797314139477
          -0.00020020687500396853 0 0.00010408233367556703 -0.00018210582203957064 0 0.00010307358976336501
          -0.00019144207852076658 0 0.00009874377003996543 -0.0001826664682119302 0 0.00009340346566107799
          -0.00016008096800407447 0 0.00009125113733009383 -0.0001708314349781448 0 0.00010198264209462291
          -0.0001713870857800576 0 0.00009232505921775332 -0.00015708372965956598 0 0.00010635399045896787
          -0.0002000091399000001 0 0.00008272313070431685 -0.0001913359793010399 0 0.00008807864434723115
          -0.0002000793369194905 0 0.00009343630349958896 -0.0001823518965515818 0 0.00008367869020171363